Argon FCC conventional-cell smoke-test structure

4 atoms
1 atom types

0.0 5.26 xlo xhi
0.0 5.26 ylo yhi
0.0 5.26 zlo zhi

Masses

1 39.948 # Ar

Atoms

1 1 0.000 0.000 0.000
2 1 0.000 2.630 2.630
3 1 2.630 0.000 2.630
4 1 2.630 2.630 0.000
